<?xml version="1.0" encoding="iso-8859-1"?>

<configuration xmlns:xsi="http://www.w3.org/2001/XMLSchema-instance" xsi:noNamespaceSchemaLocation="http://sumo.sf.net/xsd/sumoConfiguration.xsd">

    <input>
        <net-file value="map.net.xml"/>
        <additional-files value="map.rou.xml,vehicles.xml,map.poly.xml,pointsOfInterest.xml,inductionLoops.xml"/>
    </input>

    <output>
        <summary-output value="results.out.xml"/>
    </output>

    <time>
        <begin value="0"/>
        <end value="50400"/>
    </time>

    <processing>
        <time-to-teleport value="0"/>
        <ignore-route-errors value="true"/>
    </processing>

    <report>
        <no-duration-log value="true"/>
        <no-step-log value="true"/>
        <verbose value="true"/>
        <duration-log.statistics value="true"/>
    </report>
    
</configuration>

