<?xml version="1.0" encoding="UTF-8"?>

<!-- generated on Die 28 Nov 2017 14:17:24 CET by SUMO gui Version 0.30.0
<?xml version="1.0" encoding="UTF-8"?>

<configuration xmlns:xsi="http://www.w3.org/2001/XMLSchema-instance" xsi:noNamespaceSchemaLocation="http://sumo.dlr.de/xsd/sumoConfiguration.xsd">

    <input>
        <net-file value="Kad100.net.xml"/>
        <route-files value="Kad100.rou.xml"/>
    </input>

    <output>
        <tripinfo-output value="Kad100.trips.xml"/>
    </output>

    <traci_server>
        <remote-port value="8833"/>
    </traci_server>

</configuration>
-->

<tripinfos xmlns:xsi="http://www.w3.org/2001/XMLSchema-instance" xsi:noNamespaceSchemaLocation="http://sumo.dlr.de/xsd/tripinfo_file.xsd">
    <tripinfo id="2" depart="2.00" departLane="4290738#2_0" departPos="5.10" departSpeed="0.00" departDelay="0.00" arrival="38.00" arrivalLane="4290757#1_1" arrivalPos="103.01" arrivalSpeed="20.97" duration="36.00" routeLength="460.26" waitSteps="0" timeLoss="14.43" rerouteNo="0" devices="tripinfo_2" vType="DEFAULT_VEHTYPE" speedFactor="1.00" vaporized=""/>
    <tripinfo id="0" depart="0.00" departLane="4290716#7_0" departPos="5.10" departSpeed="0.00" departDelay="0.00" arrival="47.00" arrivalLane="4290738#3_0" arrivalPos="117.30" arrivalSpeed="21.19" duration="47.00" routeLength="738.88" waitSteps="0" timeLoss="13.17" rerouteNo="0" devices="tripinfo_0" vType="DEFAULT_VEHTYPE" speedFactor="1.00" vaporized=""/>
    <tripinfo id="8" depart="8.00" departLane="-4290741#4_0" departPos="5.10" departSpeed="0.00" departDelay="0.00" arrival="52.00" arrivalLane="4290756#1_1" arrivalPos="80.57" arrivalSpeed="21.63" duration="44.00" routeLength="562.64" waitSteps="0" timeLoss="18.52" rerouteNo="0" devices="tripinfo_8" vType="DEFAULT_VEHTYPE" speedFactor="1.00" vaporized=""/>
    <tripinfo id="3" depart="3.00" departLane="4483560#2_0" departPos="5.10" departSpeed="0.00" departDelay="0.00" arrival="52.00" arrivalLane="4290717#7_0" arrivalPos="69.90" arrivalSpeed="21.96" duration="49.00" routeLength="807.17" waitSteps="0" timeLoss="11.75" rerouteNo="0" devices="tripinfo_3" vType="DEFAULT_VEHTYPE" speedFactor="1.00" vaporized=""/>
    <tripinfo id="9" depart="9.00" departLane="4290739#8_0" departPos="5.10" departSpeed="0.00" departDelay="0.00" arrival="53.00" arrivalLane="-4290720#1_1" arrivalPos="19.77" arrivalSpeed="10.43" duration="44.00" routeLength="591.06" waitSteps="0" timeLoss="17.22" rerouteNo="0" devices="tripinfo_9" vType="DEFAULT_VEHTYPE" speedFactor="1.00" vaporized=""/>
    <tripinfo id="11" depart="11.00" departLane="4290716#5_0" departPos="5.10" departSpeed="0.00" departDelay="0.00" arrival="54.00" arrivalLane="-4290717#0_1" arrivalPos="59.49" arrivalSpeed="21.43" duration="43.00" routeLength="622.71" waitSteps="0" timeLoss="14.36" rerouteNo="0" devices="tripinfo_11" vType="DEFAULT_VEHTYPE" speedFactor="1.00" vaporized=""/>
    <tripinfo id="21" depart="21.00" departLane="-4290743#0_0" departPos="5.10" departSpeed="0.00" departDelay="0.00" arrival="55.00" arrivalLane="4290715#9_1" arrivalPos="35.96" arrivalSpeed="12.15" duration="34.00" routeLength="537.47" waitSteps="0" timeLoss="9.76" rerouteNo="0" devices="tripinfo_21" vType="DEFAULT_VEHTYPE" speedFactor="1.00" vaporized=""/>
    <tripinfo id="23" depart="23.00" departLane="-4290746#1_0" departPos="5.10" departSpeed="0.00" departDelay="0.00" arrival="56.00" arrivalLane="-4290743#4_1" arrivalPos="33.72" arrivalSpeed="12.14" duration="33.00" routeLength="390.08" waitSteps="0" timeLoss="15.25" rerouteNo="0" devices="tripinfo_23" vType="DEFAULT_VEHTYPE" speedFactor="1.00" vaporized=""/>
    <tripinfo id="33" depart="33.00" departLane="-4290728#3_0" departPos="5.10" departSpeed="0.00" departDelay="0.00" arrival="64.00" arrivalLane="4290739#4_1" arrivalPos="22.23" arrivalSpeed="10.43" duration="31.00" routeLength="409.62" waitSteps="0" timeLoss="12.43" rerouteNo="0" devices="tripinfo_33" vType="DEFAULT_VEHTYPE" speedFactor="1.00" vaporized=""/>
    <tripinfo id="35" depart="35.00" departLane="-4290747#1_0" departPos="5.10" departSpeed="0.00" departDelay="0.00" arrival="65.00" arrivalLane="-4290748#1_1" arrivalPos="54.61" arrivalSpeed="21.69" duration="30.00" routeLength="445.50" waitSteps="0" timeLoss="9.35" rerouteNo="0" devices="tripinfo_35" vType="DEFAULT_VEHTYPE" speedFactor="1.00" vaporized=""/>
    <tripinfo id="17" depart="17.00" departLane="4290726#0_0" departPos="5.10" departSpeed="0.00" departDelay="0.00" arrival="72.00" arrivalLane="4483619#5_3" arrivalPos="122.59" arrivalSpeed="21.84" duration="55.00" routeLength="815.44" waitSteps="0" timeLoss="17.42" rerouteNo="0" devices="tripinfo_17" vType="DEFAULT_VEHTYPE" speedFactor="1.00" vaporized=""/>
    <tripinfo id="13" depart="13.00" departLane="4483622#3_0" departPos="5.10" departSpeed="0.00" departDelay="0.00" arrival="74.00" arrivalLane="4290748#6_0" arrivalPos="41.66" arrivalSpeed="22.01" duration="61.00" routeLength="982.29" waitSteps="0" timeLoss="16.17" rerouteNo="0" devices="tripinfo_13" vType="DEFAULT_VEHTYPE" speedFactor="1.00" vaporized=""/>
    <tripinfo id="10" depart="10.00" departLane="4290741#9_0" departPos="5.10" departSpeed="0.00" departDelay="0.00" arrival="75.00" arrivalLane="-4290717#4_1" arrivalPos="71.60" arrivalSpeed="22.02" duration="65.00" routeLength="911.47" waitSteps="0" timeLoss="23.65" rerouteNo="0" devices="tripinfo_10" vType="DEFAULT_VEHTYPE" speedFactor="1.00" vaporized=""/>
    <tripinfo id="14" depart="14.00" departLane="-4290741#8_0" departPos="5.10" departSpeed="0.00" departDelay="0.00" arrival="75.00" arrivalLane="4483619#3_3" arrivalPos="89.93" arrivalSpeed="21.44" duration="61.00" routeLength="834.54" waitSteps="0" timeLoss="22.64" rerouteNo="0" devices="tripinfo_14" vType="DEFAULT_VEHTYPE" speedFactor="1.00" vaporized=""/>
</tripinfos>
